% Model:              孪晶界面_磁-力_热(考虑温度对孪晶界面迁移的影响)_24-副本.mph
% Version:            COMSOL 6.2.0.290
% Date:               May 28 2025, 17:43
% Table:              表格 6 - 全局计算: 全局计算 3
% Time (ms)                                       abs(k_tw*D_wn2*Vn2)*(abs(dd2t)>0) (W/m^2)
0                                                 34309.1007836996
0.05                                              32331.794960116134
0.1                                               30135.637834693145
0.15000000000000002                               27736.373102140282
0.2                                               25179.205212350702
0.25                                              22467.08313622404
0.30000000000000004                               19637.444078201817
0.35000000000000003                               16709.145114558578
0.4                                               13695.986490091875
0.45000000000000007                               10587.542078157066
0.5                                               7293.680982110354
0.55                                              2863.0753314020512
0.6000000000000001                                2.5293487545935854E-21
0.6500000000000001                                0
0.7000000000000001                                0
0.75                                              0
0.8                                               0
0.8500000000000001                                0
0.9000000000000001                                0
0.9500000000000001                                0
1                                                 0
1.05                                              0
1.1                                               0
1.1500000000000001                                0
1.2000000000000002                                0
1.25                                              0
1.3000000000000003                                3280.2175185007795
1.35                                              10607.012035236692
1.4000000000000001                                16823.006868087923
1.4500000000000002                                23246.459460858132
1.5                                               29958.45028959479
1.5500000000000003                                36903.88013192681
1.6                                               43946.33669613691
1.6500000000000001                                51149.08841709271
1.7000000000000002                                58324.16386040747
1.75                                              65622.73788870228
1.8000000000000003                                72696.40733150499
1.85                                              79434.70136948589
1.9000000000000001                                83301.27118152038
1.9500000000000002                                91582.31241574025
2                                                 96845.73367195559
2.0500000000000003                                101578.66710189603
2.1                                               105805.67341827847
2.15                                              109530.90007999631
2.2                                               112722.1001281531
2.2500000000000004                                115391.89769447621
2.3000000000000003                                117577.3083923508
2.35                                              119254.00921732557
2.4000000000000004                                120413.70428010293
2.45                                              121109.77885826609
2.5                                               121333.00028511777
2.5500000000000003                                121095.98268858196
2.6000000000000005                                120412.05816207989
2.6500000000000004                                119284.92953434472
2.7                                               117710.28210567427
2.75                                              116252.00703963093
2.8000000000000003                                108513.03596033435
2.85                                              93364.02130199203
2.9000000000000004                                79962.38886472797
2.95                                              67532.2570619532
3                                                 56082.748562616274
3.0500000000000003                                45608.88616429481
3.1000000000000005                                36105.55072133793
3.1500000000000004                                27535.37617417156
3.2                                               19873.60541832461
3.2500000000000004                                12959.270450528142
3.3000000000000003                                6274.069222650127
3.35                                              0
3.4000000000000004                                0
3.45                                              0
3.5                                               0
3.5500000000000003                                0
3.6000000000000005                                0
3.6500000000000004                                0
3.7                                               0
3.75                                              0
3.8000000000000003                                0
3.85                                              0
3.9000000000000004                                0
3.95                                              8176.608401193316
4                                                 13827.636151559958
4.05                                              19309.05594680872
4.1000000000000005                                24553.606677459415
4.15                                              29641.3191323663
4.2                                               34587.37329261598
4.25                                              39378.90472650576
4.3                                               43994.7809932268
4.3500000000000005                                48403.185006090316
4.4                                               52576.04735561239
4.45                                              56503.4363459363
4.500000000000001                                 60144.83236789477
4.55                                              63500.08637629467
4.6000000000000005                                66554.92178166157
4.65                                              69271.62048743885
4.7                                               71664.33082331921
4.75                                              73716.64681597704
4.800000000000001                                 75426.40177876175
4.850000000000001                                 76772.4156446159
4.9                                               77765.54759842412
4.95                                              78390.56416559407
5                                                 78767.44825378418
5.050000000000001                                 78663.90551550048
5.1000000000000005                                78284.01550838264
5.15                                              77536.5701215452
5.200000000000001                                 76451.38447404356
5.25                                              75045.72314390045
5.300000000000001                                 73326.10392585352
5.3500000000000005                                71299.69597378562
5.4                                               68983.66835538426
5.45                                              66390.60581134501
5.5                                               63534.557967391826
5.550000000000001                                 60441.89868469839
5.6000000000000005                                57125.27062535821
5.65                                              53608.3121719907
5.7                                               49914.28334191073
5.75                                              46068.13034388675
5.800000000000001                                 42099.83501718177
5.850000000000001                                 38036.8970025745
5.9                                               33915.346883546474
5.95                                              29761.184138936474
6                                                 25608.95402554079
6.050000000000001                                 21485.950090367514
6.1000000000000005                                17413.271496700014
6.15                                              13400.027009322348
6.200000000000001                                 9376.023406668543
6.25                                              4999.049767628609
6.300000000000001                                 7.508109507315536E-36
6.3500000000000005                                0
6.4                                               0
6.45                                              0
6.500000000000001                                 0
6.550000000000001                                 0
6.6000000000000005                                0
6.65                                              0
6.7                                               0
6.75                                              0
6.800000000000001                                 0
6.850000000000001                                 0
6.9                                               0
6.95                                              776.7930881785113
7                                                 9861.362463858546
7.050000000000001                                 16182.393028960358
7.1000000000000005                                22602.065058865064
7.15                                              29206.99032575278
7.200000000000001                                 35986.47087778492
7.25                                              42915.277341151814
7.300000000000001                                 49950.79892886196
7.3500000000000005                                57028.056077564426
7.4                                               64061.454494131096
7.45                                              70771.73331721763
7.5                                               77046.88215960194
7.550000000000001                                 82752.06280327939
7.6000000000000005                                87898.60581521264
7.65                                              92590.3099202246
7.7                                               96740.43057426748
7.75                                              100383.09645633295
7.800000000000001                                 103524.19434011396
7.850000000000001                                 106168.62843904035
7.9                                               108308.33483443245
7.95                                              109919.67266738987
8                                                 111061.25065412789
8.05                                              111703.54269303997
8.1                                               111880.41633170837
8.15                                              111592.40822070398
8.200000000000001                                 110838.03782718159
8.25                                              109630.1861688222
8.3                                               108267.1231392874
8.35                                              102708.15516158125
8.4                                               88011.3840741573
8.450000000000001                                 75143.7291230744
8.5                                               63202.87634331388
8.55                                              52217.216724920785
8.6                                               42195.19099643853
8.65                                              33113.6454566759
8.700000000000001                                 24928.294653830108
8.75                                              17604.877614286543
8.8                                               10931.52029948021
8.85                                              3911.077680789235
8.9                                               0
8.950000000000001                                 0
9.000000000000002                                 0
9.05                                              0
9.1                                               0
9.15                                              0
9.200000000000001                                 0
9.25                                              0
9.3                                               0
9.350000000000001                                 0
9.4                                               0
9.450000000000001                                 1730.6670923355196
9.5                                               9576.353374110575
9.55                                              15176.979238140784
9.600000000000001                                 20682.259752831684
9.65                                              25991.48999350196
9.700000000000003                                 31134.327648366496
9.75                                              36143.69022901282
9.8                                               40959.01071885555
9.850000000000001                                 45586.427338365786
9.9                                               50013.77215754737
9.950000000000001                                 54200.860433155365
10                                                58127.551203339106
10.050000000000002                                61775.42481140171
10.100000000000001                                65137.42169456945
10.15                                             68175.12446778707
10.200000000000001                                70890.17208030069
10.25                                             73277.25188930405
10.3                                              75325.8484975781
10.350000000000001                                77012.9264091801
10.400000000000002                                78360.76499258137
10.450000000000001                                79204.5426465456
10.5                                              79970.83736722231
10.55                                             80246.55373983247
10.600000000000001                                80168.40310094826
10.65                                             79729.75738099583
10.700000000000001                                78999.29283726373
10.75                                             77935.36383273953
10.8                                              76459.99455915974
10.850000000000001                                74597.17958550704
10.9                                              72623.46333639725
10.950000000000001                                70227.48759778196
11                                                71611.79320250174
11.05                                             64527.20767871523
11.100000000000001                                61609.393618103866
11.15                                             58277.20380384487
11.200000000000001                                54755.06545888835
11.25                                             51044.60092094075
11.3                                              47173.257448993
11.350000000000003                                43173.44191595488
11.4                                              39084.188536587404
11.450000000000001                                34926.36488806272
11.5                                              30736.543202844947
11.55                                             26544.87919460819
11.600000000000001                                22382.53007835617
11.65                                             18274.300357693544
11.700000000000003                                14226.417987364426
11.75                                             10226.929600094332
11.8                                              8836.329051072016
11.850000000000001                                4.4715846441045367E-29
11.9                                              0
11.950000000000001                                0
12                                                0
12.050000000000002                                0
12.100000000000001                                0
12.15                                             0
12.200000000000001                                0
12.25                                             0
12.3                                              0
12.350000000000001                                0
12.400000000000002                                0
12.450000000000001                                0
12.5                                              0
12.55                                             8796.199334172372
12.600000000000001                                15132.831797404891
12.65                                             21519.233736213224
12.700000000000001                                28097.94615295925
12.750000000000002                                34871.53004088689
12.8                                              41758.375292813485
12.850000000000001                                48775.20236237544
12.9                                              55845.25849769553
12.950000000000001                                62895.08938496713
13.000000000000002                                69677.32521463366
13.05                                             75997.32227028049
13.100000000000001                                81782.49157203517
13.15                                             87002.21014924331
13.200000000000001                                91736.17468294101
13.25                                             95967.71564419338
13.3                                              99677.29048199554
13.350000000000003                                102879.45829008389
13.4                                              105595.45196037702
13.450000000000001                                107813.0912251963
13.5                                              109470.43524960981
13.55                                             110680.54268046624
13.600000000000001                                111385.42128325059
13.65                                             111623.31845537177
13.700000000000003                                111399.8571135466
13.75                                             110707.90291441011
13.8                                              109557.458589258
13.850000000000001                                108062.65844380237
13.9                                              104041.46484457194
13.950000000000001                                89306.58935706865
14                                                76354.37303086855
14.050000000000002                                64322.825938994574
14.100000000000001                                53250.880483388544
14.15                                             43132.60970293644
14.200000000000001                                33966.11026076725
14.25                                             25695.34060590567
14.3                                              18296.333757741926
14.350000000000001                                11708.51959150583
14.400000000000002                                5958.953056700101
14.450000000000001                                1.4855373325812912E-32
14.5                                              3.1542869171625395E-51
14.55                                             1.2950380625580732E-80
14.600000000000001                                0
14.65                                             0
14.700000000000001                                0
14.750000000000002                                0
14.8                                              0
14.850000000000001                                0
14.9                                              0
14.950000000000001                                0
15                                                0
15.05                                             6513.8275024791
15.100000000000001                                12341.137326397657
15.15                                             17844.179881032527
15.200000000000001                                23137.980909562946
15.25                                             28251.59850595189
15.3                                              33226.55751909766
15.350000000000003                                38051.33855295974
15.4                                              42705.34701360666
15.450000000000001                                47162.61079332213
15.5                                              51392.707070200675
15.55                                             55373.745724774126
15.600000000000001                                59094.49471081884
15.65                                             62515.44114554255
15.700000000000003                                65635.52884926894
15.75                                             68447.10052497852
15.8                                              70949.98031341107
15.850000000000003                                73045.46032850156
15.9                                              74831.90242112242
15.950000000000003                                76274.92751102286
16                                                77356.68552135672
16.05                                             75537.60023249174
16.1                                              78498.18535277012
16.150000000000002                                78519.90816016794
16.2                                              78208.92308820083
16.25                                             77535.62978290899
16.3                                              76539.0444116261
16.350000000000005                                75215.24498204823
16.400000000000002                                73566.6491456801
16.45                                             71582.38287585255
16.5                                              69371.93611008771
16.55                                             66571.21184851283
16.6                                              64073.64514515555
16.650000000000002                                61031.01258723279
16.7                                              57767.262699569146
16.75                                             54298.48375397645
16.8                                              50662.805895144775
16.85                                             46838.04011756203
16.900000000000002                                42899.089128330874
16.95                                             38862.53286249846
17                                                34759.853928791
17.050000000000004                                29791.301408703104
17.1                                              26466.85859210725
17.150000000000002                                22344.039203992004
17.2                                              18265.32065793391
17.25                                             14243.077843865145
17.3                                              10236.028624452374
17.35                                             6008.596410294032
17.400000000000002                                6.837512997467808E-40
17.45                                             0
17.5                                              0
17.55                                             0
17.6                                              0
17.650000000000002                                0
17.7                                              0
17.750000000000004                                0
17.8                                              0
17.85                                             0
17.900000000000002                                0
17.95                                             0
18.000000000000004                                0
18.05                                             0
18.1                                              8501.893387646242
18.150000000000002                                14858.33821552586
18.2                                              21234.698833613016
18.25                                             27801.03176845798
18.3                                              34543.90708876934
18.35                                             41447.90870580511
18.400000000000002                                48480.21636505804
18.450000000000003                                55541.276464580355
18.5                                              62573.00002859255
18.55                                             69379.87436786748
18.6                                              75731.35231734338
18.650000000000002                                81594.25483273574
18.700000000000003                                86778.36912359722
18.75                                             91643.09517243036
18.8                                              95918.64531412427
18.85                                             99671.56596871128
18.900000000000002                                102926.95635460857
18.95                                             105637.69411543598
19                                                107938.00412807384
19.05                                             109651.36525046242
19.1                                              110894.51593922664
19.150000000000002                                111642.48331574566
19.200000000000003                                111924.74000067689
19.25                                             111735.38143133577
19.3                                              111090.48651218376
19.35                                             109981.01169984783
19.400000000000006                                108432.3432183969
19.450000000000003                                105619.49237527956
19.5                                              91037.45393842227
19.55                                             77940.66839161285
19.6                                              65787.4013516638
19.650000000000006                                54589.859427314754
19.700000000000003                                44348.42883629071
19.75                                             35062.1453012495
19.8                                              27108.896029287276
19.85                                             20817.080960465642
19.900000000000002                                14951.82142408407
19.950000000000003                                9289.489821039802
20                                                1702.0888057727934
20.05                                             0
20.100000000000005                                0
20.150000000000002                                0
20.200000000000003                                0
20.25                                             0
20.3                                              0
20.350000000000005                                0
20.400000000000002                                0
20.450000000000003                                0
20.5                                              0
20.55                                             0
20.6                                              2434.5318150940657
20.650000000000002                                9747.682356040197
20.700000000000003                                15280.137296205228
20.75                                             20583.901378170412
20.800000000000004                                25679.45291847234
20.85                                             30639.227564924695
20.900000000000002                                35461.3500780787
20.950000000000003                                40129.05616698024
21                                                44612.33661516774
21.050000000000004                                48882.01483439483
21.1                                              52911.92153105866
21.150000000000002                                56681.41738787954
21.200000000000003                                60175.37567934516
21.25                                             63364.23837094877
21.3                                              66243.75334627581
21.35                                             68804.77015352287
21.400000000000002                                71017.92013403543
21.450000000000003                                72891.24460183365
21.5                                              74418.98248500643
21.55                                             75587.72639291553
21.6                                              76415.79196124195
21.650000000000002                                76902.12466954766
21.700000000000003                                75890.6965989845
21.750000000000004                                76806.96541075989
21.8                                              76221.31921440725
21.85                                             75298.91718873374
21.900000000000002                                74149.18992277693
21.950000000000003                                72489.13043275119
22                                                70712.33743647697
22.05                                             68623.97083228016
22.1                                              66455.9121961676
22.150000000000002                                57660.90963536221
22.200000000000003                                60386.04329200798
22.25                                             57271.500420057346
22.3                                              53878.60710743921
22.35                                             50285.22709474686
22.400000000000002                                46538.57323573944
22.450000000000006                                42658.05311224976
22.5                                              38675.2197277381
22.55                                             34614.58956123386
22.6                                              30511.548081675042
22.650000000000002                                26405.63204196229
22.700000000000006                                22314.665802636126
22.75                                             18267.55073393759
22.8                                              14267.497803639277